SPECGRID
  68  77  76   1  F  /


INCLUDE
 grid.coord.inc
  /

INCLUDE
 grid.zcorn.inc
  /

INCLUDE
 grid.actnum.inc
  /

INCLUDE
 grid.poro.inc
  /

INCLUDE
 grid.ntg.inc
  /

INCLUDE
 grid.perm.inc
  /
